   12
Geometry Step: 200
    N     -0.00126598      0.15842611     -0.16618633      5.43653693
    H     -0.25152159      1.15753515     -0.17267349      0.82215152
    C      1.43116986     -0.03067870     -0.02750683      3.94072388
    H      1.62926953     -1.13310555     -0.01222312      0.94098856
    C      1.99665573      0.58105263      1.24737064      4.22637952
    H      3.08693376      0.47134321      1.27262165      0.91786778
    H      1.57697337      0.09206977      2.13585523      0.93635084
    H      1.75980953      1.65104874      1.30539802      0.93074645
    C      2.13973423      0.51162161     -1.26219186      3.66887653
    O      3.29123947      0.83910427     -1.28075220      6.35856961
    H     -0.51712799     -0.30499270      0.59447679      0.82069181
    H      1.48533382      0.56813270     -2.20804361      1.00011657
